ITEM: TIMESTEP
0
ITEM: NUMBER OF ATOMS
200
ITEM: BOX BOUNDS pp pp pp
-3.0252 9.81708
2.19301 15.0353
-0.77907 12.0632
ITEM: ATOMS id type xs ys zs
1 1 0.0701152 0.407196 0.123346
2 1 0.0708658 0.435003 0.214758
8 1 0.499492 0.0491121 0.053559
21 1 0.0641848 0.0318944 0.139825
24 1 0.242841 0.25428 0.0288604
125 2 0.459944 0.423409 0.0129949
126 3 0.383656 0.412691 0.0516665
127 3 0.494452 0.342108 0.0105791
132 3 0.487458 0.37237 0.205346
197 2 0.321056 0.0848425 0.227108
198 3 0.305918 0.100294 0.139205
199 3 0.393931 0.0375682 0.225462
200 3 0.258645 0.0260923 0.244485
49 3 0.238481 0.00540979 0.45396
109 3 0.31834 0.473539 0.318113
181 2 0.0672474 0.307778 0.415173
182 3 0.00796907 0.274052 0.363968
183 3 0.0782342 0.388878 0.398256
184 2 0.168847 0.247152 0.416447
185 3 0.225116 0.293874 0.458683
186 3 0.15256 0.179588 0.462502
187 2 0.212188 0.216911 0.304882
188 3 0.208414 0.285525 0.250235
189 3 0.154004 0.164445 0.274375
190 2 0.31805 0.166903 0.310228
191 3 0.387181 0.224045 0.294729
192 3 0.332682 0.130171 0.388698
13 1 0.362344 0.26629 0.58589
14 1 0.45189 0.284872 0.589653
75 2 0.165693 0.00359905 0.606091
76 3 0.114861 0.0755247 0.595615
78 2 0.255489 0.0557377 0.6675
79 3 0.297621 0.106329 0.608771
88 3 0.177361 0.181814 0.744027
91 3 0.326241 0.482997 0.698498
96 3 0.340009 0.484564 0.512843
166 2 0.00895176 0.359828 0.71749
169 2 0.0671687 0.359406 0.609533
170 3 0.0923949 0.440544 0.589491
171 3 0.140249 0.32046 0.616511
172 2 0.0136469 0.299041 0.522217
173 3 0.0131477 0.218232 0.538239
23 1 0.308384 0.228561 0.964832
85 2 0.224723 0.113705 0.764767
86 3 0.297251 0.142285 0.805556
87 3 0.186565 0.0637576 0.820349
104 2 0.439189 0.473341 0.90136
105 3 0.382196 0.42596 0.849125
160 2 0.0335602 0.438051 0.913005
161 3 0.0473431 0.357336 0.937203
162 3 0.084123 0.494019 0.952583
163 2 0.0677197 0.429108 0.796632
164 3 0.150652 0.396741 0.802363
196 3 0.464131 0.00603016 0.778398
22 1 0.0958163 0.94802 0.161901
113 2 0.187348 0.677821 0.181417
114 3 0.107813 0.652072 0.198038
115 3 0.198407 0.738677 0.243377
116 2 0.262545 0.584803 0.208086
117 3 0.339335 0.606705 0.187347
118 3 0.234368 0.520149 0.158138
119 2 0.290952 0.810117 0.0692635
120 3 0.290516 0.856591 0.137603
121 3 0.366535 0.761772 0.0676685
122 2 0.199776 0.725986 0.0770583
123 3 0.130857 0.773218 0.0627638
124 3 0.204812 0.666265 0.0172121
130 3 0.492731 0.54936 0.113898
17 1 0.33196 0.868151 0.341489
18 1 0.391693 0.919269 0.392459
35 3 0.0206632 0.735783 0.341287
36 2 0.0529111 0.817475 0.48471
45 2 0.0958355 0.915891 0.435931
46 3 0.0330889 0.973645 0.425328
47 3 0.13596 0.897681 0.355206
107 2 0.267827 0.541585 0.323523
108 3 0.19069 0.512853 0.338521
110 2 0.306908 0.611192 0.411266
111 3 0.252843 0.67151 0.418223
112 3 0.38568 0.635763 0.39233
37 3 0.00694892 0.83772 0.555619
38 3 0.113811 0.758141 0.502726
48 2 0.187853 0.954456 0.501207
50 3 0.239484 0.888097 0.520422
77 3 0.117575 0.948594 0.65259
80 3 0.305361 0.997956 0.698002
89 2 0.326667 0.569961 0.705408
90 3 0.246114 0.586532 0.724972
95 2 0.294642 0.556381 0.517235
97 3 0.212824 0.534489 0.538921
98 2 0.348902 0.620831 0.600693
99 3 0.433301 0.630602 0.591714
100 3 0.317081 0.703609 0.597108
15 1 0.0479447 0.830243 0.867038
16 1 0.0927451 0.753936 0.82454
92 2 0.3974 0.619381 0.785755
93 3 0.481698 0.612996 0.756269
94 3 0.380331 0.705908 0.773969
101 2 0.400547 0.585321 0.893997
102 3 0.468803 0.630939 0.930753
103 3 0.338557 0.596194 0.942512
141 2 0.296316 0.876562 0.966765
142 3 0.233639 0.935783 0.964257
143 3 0.377407 0.91028 0.951546
144 3 0.265321 0.825291 0.904122
165 3 0.0661006 0.509895 0.769517
3 1 0.699297 0.0369627 0.211371
7 1 0.512863 0.137428 0.0849495
71 3 0.779864 0.11173 0.00640151
81 2 0.865107 0.248197 0.0497819
82 3 0.85763 0.217812 0.133699
83 3 0.822367 0.319099 0.0411404
84 3 0.947485 0.268663 0.0443269
128 2 0.535486 0.480076 0.0836892
131 2 0.553658 0.415293 0.183435
133 3 0.611916 0.352625 0.174039
159 3 0.917651 0.490977 0.0169763
12 1 0.812374 0.0501188 0.479745
19 1 0.597989 0.134075 0.42768
20 1 0.527154 0.193273 0.410347
25 1 0.794871 0.306602 0.312749
26 1 0.792145 0.218208 0.341714
134 2 0.593248 0.483255 0.270453
137 2 0.590673 0.445179 0.38403
138 3 0.648579 0.379539 0.389963
140 3 0.51705 0.414039 0.402163
11 1 0.781535 0.110651 0.543491
27 1 0.929389 0.0245885 0.74959
56 3 0.864142 0.497011 0.616547
57 2 0.698262 0.393456 0.745079
58 3 0.776937 0.367579 0.714277
60 2 0.643753 0.453641 0.663221
61 3 0.643529 0.411876 0.589815
62 3 0.557301 0.467876 0.686597
68 3 0.663511 0.237395 0.705519
168 3 0.929519 0.389622 0.709234
174 3 0.931077 0.327601 0.501833
194 3 0.594041 0.0501843 0.731113
59 3 0.710847 0.448429 0.80862
63 2 0.689207 0.247723 0.867252
64 3 0.633789 0.18451 0.890382
65 3 0.689859 0.30457 0.928608
66 2 0.642364 0.294751 0.770504
67 3 0.55371 0.305607 0.772547
69 2 0.83743 0.161663 0.967539
70 3 0.907883 0.105917 0.965214
72 2 0.797168 0.201205 0.86047
73 3 0.793888 0.140809 0.802783
74 3 0.856924 0.260799 0.83593
106 3 0.513525 0.476021 0.857201
157 2 0.921788 0.483853 0.929591
158 3 0.864967 0.427774 0.901069
167 3 0.997079 0.285641 0.766349
4 1 0.742261 0.964371 0.174473
9 1 0.918815 0.768776 0.146714
10 1 0.899529 0.676367 0.136621
31 1 0.507958 0.843818 0.216488
32 1 0.547921 0.818186 0.131716
129 3 0.609819 0.504607 0.0443692
147 3 0.707018 0.816852 0.00801407
152 3 0.773573 0.63656 0.0041178
5 1 0.694638 0.738688 0.336348
6 1 0.721062 0.826883 0.317548
33 2 0.977474 0.760661 0.414633
34 3 0.923648 0.819379 0.383917
42 2 0.927958 0.653734 0.452998
43 3 0.873037 0.62944 0.39527
44 3 0.989593 0.595015 0.461798
135 3 0.669111 0.513813 0.251461
136 3 0.538466 0.54862 0.279075
139 3 0.605096 0.503378 0.447612
28 1 0.8776 0.948902 0.72651
29 1 0.564334 0.847095 0.506994
30 1 0.637748 0.903261 0.534036
39 2 0.859604 0.654582 0.553802
40 3 0.904663 0.674119 0.622127
41 3 0.800407 0.716607 0.547193
51 2 0.702092 0.557417 0.642345
52 3 0.650874 0.612558 0.595492
53 3 0.706119 0.601559 0.712822
54 2 0.806053 0.546863 0.578081
55 3 0.775553 0.514515 0.501737
177 3 0.650836 0.862312 0.737351
193 2 0.536931 0.987132 0.741532
195 3 0.510932 0.964817 0.659287
145 2 0.677433 0.798695 0.930005
146 3 0.613591 0.745202 0.946051
148 2 0.76955 0.739394 0.871815
149 3 0.842051 0.785293 0.871051
150 3 0.748896 0.726092 0.786401
151 2 0.790819 0.631417 0.920225
153 3 0.737696 0.570657 0.886331
154 2 0.902765 0.597994 0.896783
155 3 0.954921 0.650392 0.940239
156 3 0.921511 0.601602 0.813518
175 2 0.587879 0.895355 0.787588
176 3 0.535612 0.831406 0.785163
178 2 0.640033 0.901105 0.895993
179 3 0.57976 0.9291 0.956352
180 3 0.704715 0.956672 0.895934
ITEM: TIMESTEP
1000
ITEM: NUMBER OF ATOMS
200
ITEM: BOX BOUNDS pp pp pp
-3.0252 9.81708
2.19301 15.0353
-0.77907 12.0632
ITEM: ATOMS id type xs ys zs
1 1 0.0732289 0.399879 0.133638
2 1 0.0514517 0.441137 0.221066
8 1 0.486744 0.0648536 0.0325581
21 1 0.0691604 0.0398825 0.138636
24 1 0.23942 0.25655 0.0293738
127 3 0.499941 0.343512 7.54397e-05
126 3 0.385453 0.411462 0.024134
200 3 0.277262 0.0330953 0.228762
132 3 0.433093 0.441317 0.199266
197 2 0.329253 0.0996205 0.228022
198 3 0.305527 0.153011 0.158156
199 3 0.405624 0.0712215 0.211813
188 3 0.185705 0.262948 0.254662
109 3 0.321728 0.468164 0.327947
181 2 0.0464777 0.290719 0.42231
191 3 0.365146 0.253817 0.323359
183 3 0.0408686 0.365994 0.385666
184 2 0.163437 0.250641 0.423964
185 3 0.216764 0.314321 0.441174
186 3 0.177231 0.192232 0.481009
187 2 0.192717 0.20591 0.318065
192 3 0.336249 0.143863 0.395018
189 3 0.145711 0.138939 0.306607
190 2 0.312123 0.180689 0.319642
49 3 0.217668 0.00601923 0.468091
13 1 0.345537 0.28443 0.598448
14 1 0.445764 0.308685 0.614557
173 3 0.0362047 0.21967 0.577155
76 3 0.0847487 0.0616989 0.594357
78 2 0.239932 0.0333999 0.663722
79 3 0.286949 0.0753482 0.603234
172 2 0.013488 0.289474 0.538379
91 3 0.376284 0.475219 0.684265
88 3 0.175534 0.179403 0.733575
166 2 0.0321578 0.371649 0.714183
169 2 0.076274 0.37382 0.60124
170 3 0.049168 0.453909 0.581199
171 3 0.157296 0.36116 0.595577
96 3 0.327718 0.490556 0.517306
167 3 0.061077 0.29782 0.749369
23 1 0.306927 0.23053 0.960805
85 2 0.219093 0.10795 0.75938
86 3 0.291867 0.136226 0.794623
87 3 0.172511 0.0748192 0.820371
104 2 0.455539 0.466867 0.888201
105 3 0.433116 0.409666 0.824673
160 2 0.0324952 0.458579 0.895402
161 3 0.0479329 0.38338 0.92976
164 3 0.162384 0.473051 0.771317
163 2 0.0756133 0.464938 0.777775
125 2 0.465797 0.423974 0.996959
22 1 0.109464 0.950939 0.172153
113 2 0.182279 0.679282 0.206684
114 3 0.107989 0.639363 0.219533
124 3 0.185988 0.668618 0.0310348
116 2 0.277983 0.604054 0.226689
117 3 0.351924 0.644741 0.230076
118 3 0.291527 0.551622 0.157843
119 2 0.29246 0.793485 0.0752797
120 3 0.305509 0.84312 0.141575
121 3 0.360978 0.739911 0.0638651
122 2 0.189001 0.728904 0.0927893
123 3 0.129151 0.783392 0.0724596
17 1 0.307264 0.859192 0.344367
18 1 0.373011 0.920391 0.391173
112 3 0.400392 0.622944 0.399359
115 3 0.187007 0.740289 0.26753
45 2 0.0801742 0.918913 0.451534
46 3 0.0290706 0.986509 0.460084
47 3 0.0977809 0.916311 0.36442
107 2 0.274343 0.538286 0.329415
108 3 0.196681 0.518829 0.3508
110 2 0.316526 0.619709 0.409566
111 3 0.276034 0.690302 0.405039
38 3 0.102497 0.748495 0.492969
36 2 0.0391507 0.813647 0.496152
37 3 0.0176609 0.809697 0.577739
48 2 0.181744 0.944241 0.511547
100 3 0.316847 0.708933 0.605
50 3 0.225242 0.877182 0.535116
77 3 0.102176 0.935634 0.664145
80 3 0.28737 0.971028 0.683556
89 2 0.349445 0.558797 0.691487
90 3 0.274315 0.553282 0.724705
95 2 0.292516 0.567523 0.517199
97 3 0.204858 0.575787 0.538007
98 2 0.358965 0.632582 0.595583
99 3 0.440987 0.640212 0.573831
165 3 0.0445073 0.533727 0.741193
75 2 0.138795 0.996572 0.614638
15 1 0.0593787 0.81903 0.866955
16 1 0.103198 0.748415 0.81368
92 2 0.412666 0.622155 0.776495
93 3 0.499134 0.633121 0.766024
94 3 0.365757 0.698328 0.760007
101 2 0.383627 0.566531 0.882592
102 3 0.394096 0.616915 0.952737
103 3 0.307626 0.540307 0.884413
141 2 0.286739 0.865713 0.974915
142 3 0.228379 0.929218 0.9868
143 3 0.362298 0.910218 0.964806
144 3 0.285451 0.819709 0.900742
162 3 0.0653 0.512889 0.950952
3 1 0.703778 0.042544 0.203794
7 1 0.518134 0.151942 0.0707889
129 3 0.623142 0.47854 0.0513434
81 2 0.844355 0.221342 0.0657508
82 3 0.884573 0.170693 0.125831
83 3 0.779425 0.259958 0.10356
84 3 0.901107 0.278558 0.03854
128 2 0.53952 0.486558 0.0774012
131 2 0.51688 0.433303 0.18503
133 3 0.532752 0.351169 0.180238
71 3 0.755051 0.0967336 0.00302378
182 3 0.996401 0.2349 0.385077
19 1 0.572257 0.125316 0.425774
20 1 0.526199 0.206081 0.387371
25 1 0.809433 0.343427 0.299409
26 1 0.81208 0.243743 0.32012
139 3 0.627674 0.491259 0.428517
137 2 0.583666 0.443681 0.37359
138 3 0.625564 0.365277 0.371568
140 3 0.50734 0.436283 0.404433
134 2 0.5885 0.495395 0.263887
55 3 0.797331 0.499579 0.4945
11 1 0.807198 0.114738 0.568435
27 1 0.938865 0.0236172 0.749237
174 3 0.927423 0.302779 0.551998
168 3 0.944621 0.367296 0.701796
58 3 0.790049 0.382763 0.738966
60 2 0.653934 0.451878 0.648379
61 3 0.666386 0.406988 0.576472
62 3 0.566463 0.462354 0.651869
68 3 0.685831 0.239878 0.704583
194 3 0.608788 0.0524828 0.721895
57 2 0.707791 0.405523 0.748042
67 3 0.568723 0.302372 0.746354
12 1 0.83936 0.0448823 0.501409
59 3 0.700928 0.456793 0.813794
63 2 0.675886 0.248127 0.872645
64 3 0.617557 0.18956 0.894356
65 3 0.685144 0.304464 0.936759
66 2 0.651381 0.296628 0.763598
159 3 0.887155 0.459683 0.977407
69 2 0.817281 0.147819 0.974426
70 3 0.890759 0.101404 0.959492
72 2 0.790365 0.202055 0.862361
73 3 0.794952 0.148869 0.794818
74 3 0.850928 0.26156 0.84444
106 3 0.537682 0.484514 0.868819
157 2 0.91332 0.474749 0.896082
158 3 0.870571 0.420849 0.846803
196 3 0.504958 0.0325668 0.796899
4 1 0.759797 0.992115 0.133035
9 1 0.924941 0.762025 0.138762
10 1 0.913011 0.663547 0.15015
31 1 0.510898 0.833691 0.1951
32 1 0.529885 0.789236 0.108985
130 3 0.522008 0.570095 0.0737332
147 3 0.674858 0.784833 0.0155223
152 3 0.805748 0.630043 0.0133811
135 3 0.668658 0.504499 0.237953
5 1 0.70646 0.698153 0.340868
6 1 0.732429 0.795391 0.340271
33 2 0.959583 0.759419 0.425292
34 3 0.886454 0.801072 0.433039
42 2 0.925099 0.647274 0.461227
43 3 0.898399 0.597122 0.400944
136 3 0.570644 0.578316 0.272273
44 3 0.990653 0.60729 0.496168
35 3 0.990534 0.757993 0.343322
28 1 0.876522 0.9473 0.730483
29 1 0.560887 0.823479 0.542384
30 1 0.636089 0.887891 0.54455
39 2 0.833644 0.658168 0.542546
40 3 0.858413 0.702885 0.609813
41 3 0.765529 0.696545 0.507177
51 2 0.703054 0.563734 0.638618
52 3 0.648583 0.610861 0.591331
53 3 0.70761 0.593351 0.719921
54 2 0.807541 0.544107 0.569869
195 3 0.506364 0.975159 0.671037
177 3 0.635012 0.848047 0.725861
56 3 0.873757 0.506153 0.611396
193 2 0.555235 0.990061 0.743472
145 2 0.685081 0.784278 0.93236
146 3 0.621847 0.733549 0.906655
148 2 0.798315 0.75235 0.898814
149 3 0.859248 0.797746 0.941135
150 3 0.811852 0.753906 0.811508
151 2 0.804183 0.635125 0.926443
153 3 0.729324 0.60335 0.897439
154 2 0.898037 0.591781 0.866907
155 3 0.964044 0.638958 0.892286
156 3 0.893288 0.604445 0.782472
175 2 0.59451 0.886883 0.789461
176 3 0.523225 0.851985 0.802588
178 2 0.66152 0.898179 0.893426
179 3 0.620823 0.939761 0.95723
180 3 0.728309 0.94409 0.881601
ITEM: TIMESTEP
2000
ITEM: NUMBER OF ATOMS
200
ITEM: BOX BOUNDS pp pp pp
-3.0252 9.81708
2.19301 15.0353
-0.77907 12.0632
ITEM: ATOMS id type xs ys zs
1 1 0.0776371 0.392689 0.160906
2 1 0.0298077 0.453824 0.226693
198 3 0.336122 0.162559 0.14593
21 1 0.0894118 0.0433382 0.13883
24 1 0.229752 0.267533 0.0249461
199 3 0.435341 0.120645 0.226479
126 3 0.389389 0.430264 0.0284233
200 3 0.335705 0.0409303 0.217446
132 3 0.432887 0.413899 0.204785
197 2 0.352691 0.122995 0.22548
188 3 0.159942 0.199192 0.24752
127 3 0.471461 0.321467 0.00244599
190 2 0.311101 0.192624 0.324259
109 3 0.304446 0.462805 0.309406
181 2 0.0304661 0.255109 0.427808
191 3 0.341718 0.272514 0.323829
140 3 0.485046 0.472485 0.414585
184 2 0.150589 0.249797 0.417487
185 3 0.172244 0.326124 0.38943
186 3 0.184631 0.220883 0.488558
187 2 0.187896 0.178526 0.32414
192 3 0.351588 0.146306 0.383551
189 3 0.165228 0.0987826 0.325473
49 3 0.187511 0.0139883 0.479978
183 3 0.00291925 0.318204 0.377512
13 1 0.312236 0.322234 0.627211
14 1 0.40413 0.339782 0.644087
173 3 0.0383102 0.206046 0.581137
76 3 0.0653233 0.0495979 0.639628
78 2 0.231879 0.0195308 0.681249
79 3 0.2845 0.0533619 0.624279
172 2 0.00261447 0.276877 0.544758
171 3 0.127895 0.372399 0.585311
88 3 0.173204 0.167906 0.738473
166 2 0.024397 0.379668 0.714432
169 2 0.0461005 0.37892 0.594177
170 3 0.0130324 0.453335 0.564215
23 1 0.292179 0.249112 0.946772
85 2 0.209616 0.0952531 0.775418
86 3 0.2753 0.112783 0.818162
87 3 0.148419 0.0562919 0.827527
104 2 0.473862 0.458359 0.880838
105 3 0.44796 0.406331 0.816288
160 2 0.0684076 0.493467 0.890478
161 3 0.0896236 0.432503 0.937293
164 3 0.168904 0.454132 0.763082
163 2 0.0859809 0.473279 0.77067
8 1 0.472144 0.104949 0.978785
125 2 0.462129 0.410956 0.991259
167 3 0.0357401 0.302592 0.750638
22 1 0.136905 0.979745 0.1953
113 2 0.166008 0.662026 0.19976
114 3 0.0972096 0.609471 0.194743
124 3 0.153188 0.687557 0.0337202
116 2 0.263982 0.593186 0.206557
117 3 0.33111 0.643729 0.200447
118 3 0.269054 0.538174 0.1402
119 2 0.272183 0.801938 0.0777213
120 3 0.296461 0.842469 0.149772
121 3 0.336668 0.751604 0.0677768
122 2 0.171536 0.740417 0.0984421
123 3 0.106229 0.797224 0.091421
17 1 0.262422 0.875791 0.332879
18 1 0.346602 0.908717 0.377378
112 3 0.401804 0.626047 0.355582
115 3 0.154658 0.705245 0.274496
45 2 0.0558688 0.921799 0.456079
111 3 0.297458 0.69481 0.38334
47 3 0.0738066 0.925274 0.372663
107 2 0.269599 0.536136 0.318785
108 3 0.196867 0.514107 0.34715
110 2 0.327265 0.616027 0.393555
75 2 0.123284 0.986075 0.638504
48 2 0.150834 0.952965 0.523932
100 3 0.354299 0.725026 0.577693
50 3 0.203461 0.893501 0.510212
77 3 0.0905912 0.919368 0.684783
80 3 0.269383 0.955379 0.712423
89 2 0.359751 0.588831 0.689474
90 3 0.279685 0.572925 0.707238
95 2 0.320838 0.577315 0.504745
97 3 0.2343 0.571401 0.520762
98 2 0.381492 0.645785 0.58445
99 3 0.466201 0.644447 0.566875
91 3 0.399541 0.516791 0.67542
38 3 0.101625 0.761854 0.517999
165 3 0.0743205 0.541571 0.719496
36 2 0.0311163 0.808667 0.504406
96 3 0.360867 0.501499 0.503807
15 1 0.0879806 0.783059 0.854234
16 1 0.134625 0.73826 0.779097
92 2 0.406517 0.641779 0.79163
93 3 0.483532 0.655871 0.75563
94 3 0.367373 0.726308 0.807288
101 2 0.409754 0.567501 0.888113
102 3 0.462687 0.605699 0.945353
103 3 0.336264 0.559586 0.912763
141 2 0.274583 0.880052 0.980442
162 3 0.10862 0.562269 0.917552
143 3 0.330037 0.945757 0.988973
144 3 0.275188 0.845581 0.900491
142 3 0.191926 0.908718 0.968518
3 1 0.716061 0.0201528 0.181898
7 1 0.530523 0.166807 0.0348156
129 3 0.62368 0.468715 0.0479598
81 2 0.815771 0.210521 0.0621897
82 3 0.824609 0.164911 0.132671
83 3 0.74557 0.257163 0.0755993
84 3 0.882 0.263951 0.0556222
128 2 0.537863 0.470858 0.0752606
131 2 0.517042 0.426641 0.189225
133 3 0.545677 0.350651 0.187907
138 3 0.591324 0.395369 0.390984
19 1 0.510244 0.140343 0.418919
20 1 0.543077 0.215147 0.358321
25 1 0.828106 0.414698 0.283562
26 1 0.84261 0.315943 0.280988
182 3 0.996296 0.183195 0.401663
137 2 0.561532 0.475363 0.377473
55 3 0.775004 0.496424 0.491409
11 1 0.849183 0.14088 0.597662
12 1 0.884946 0.0636803 0.546221
174 3 0.918573 0.277257 0.54413
168 3 0.942859 0.410098 0.724917
58 3 0.789326 0.367568 0.708537
60 2 0.638854 0.445907 0.641034
61 3 0.637868 0.393315 0.572929
62 3 0.556262 0.451939 0.667815
68 3 0.656742 0.23884 0.69672
194 3 0.697252 0.011634 0.722412
57 2 0.709086 0.391541 0.72647
59 3 0.731086 0.454055 0.782799
63 2 0.6797 0.250587 0.869086
64 3 0.624197 0.193743 0.903714
65 3 0.683875 0.32347 0.91247
66 2 0.644063 0.29449 0.761652
27 1 0.952393 0.0136651 0.781937
69 2 0.809552 0.133019 0.967972
70 3 0.879888 0.0870842 0.954757
72 2 0.790905 0.197399 0.866622
73 3 0.79473 0.144155 0.799387
74 3 0.849797 0.256107 0.861397
67 3 0.565089 0.317693 0.769891
106 3 0.551967 0.485287 0.863661
158 3 0.908739 0.44242 0.877247
196 3 0.584728 0.0585634 0.797287
71 3 0.750345 0.0759467 0.989346
152 3 0.800608 0.633365 0.00710966
9 1 0.937423 0.733817 0.121043
10 1 0.945557 0.650393 0.178763
31 1 0.522977 0.799096 0.131545
32 1 0.500392 0.719712 0.0749752
147 3 0.737852 0.802416 0.038495
159 3 0.939998 0.503028 0.00356164
4 1 0.780314 0.97287 0.126851
130 3 0.518778 0.556978 0.0753857
135 3 0.655528 0.507934 0.237194
5 1 0.723629 0.622159 0.333122
6 1 0.710503 0.722409 0.336675
33 2 0.958791 0.756985 0.424683
34 3 0.898735 0.817499 0.410522
42 2 0.918008 0.657761 0.460132
43 3 0.873239 0.624096 0.396272
134 2 0.573561 0.508174 0.258747
44 3 0.988976 0.618935 0.488479
46 3 0.998145 0.984956 0.454841
139 3 0.615292 0.519506 0.427824
35 3 0.993738 0.755882 0.344466
136 3 0.546977 0.585804 0.250398
195 3 0.571412 0.994977 0.678442
29 1 0.562395 0.768214 0.624029
30 1 0.616849 0.825999 0.561527
39 2 0.825386 0.656335 0.545921
40 3 0.856227 0.685067 0.622126
41 3 0.76514 0.714445 0.531925
51 2 0.685023 0.556197 0.627623
52 3 0.6374 0.617411 0.592643
53 3 0.710757 0.593673 0.703206
54 2 0.7876 0.54285 0.562359
37 3 0.992417 0.816394 0.579336
56 3 0.849449 0.502229 0.60805
193 2 0.617303 0.995638 0.747084
145 2 0.702749 0.8019 0.962319
146 3 0.639403 0.748082 0.965806
148 2 0.785949 0.75945 0.880653
149 3 0.849832 0.819701 0.880996
150 3 0.761878 0.757763 0.796086
151 2 0.808183 0.645302 0.923264
153 3 0.746177 0.592121 0.899917
154 2 0.921245 0.615835 0.876941
155 3 0.964127 0.675376 0.915148
156 3 0.931576 0.621339 0.793437
175 2 0.602821 0.888557 0.819364
176 3 0.526014 0.871855 0.845818
178 2 0.669062 0.910673 0.916048
179 3 0.634222 0.962386 0.975112
180 3 0.739873 0.955007 0.894555
177 3 0.62828 0.838743 0.757584
28 1 0.887122 0.939135 0.759056
157 2 0.950219 0.504063 0.91848
ITEM: TIMESTEP
3000
ITEM: NUMBER OF ATOMS
200
ITEM: BOX BOUNDS pp pp pp
-3.0252 9.81708
2.19301 15.0353
-0.77907 12.0632
ITEM: ATOMS id type xs ys zs
1 1 0.0965416 0.385766 0.187446
2 1 0.075458 0.457302 0.246916
198 3 0.275276 0.168434 0.155913
21 1 0.0978206 0.067306 0.118003
24 1 0.217331 0.286831 0.0128618
199 3 0.403873 0.127341 0.193941
126 3 0.386616 0.495761 0.0326193
22 1 0.13351 0.0182544 0.191236
132 3 0.461443 0.345707 0.176944
197 2 0.322873 0.132484 0.216746
200 3 0.288318 0.056129 0.229674
159 3 0.0189885 0.494364 0.0070566
190 2 0.306547 0.193357 0.321096
109 3 0.296947 0.459096 0.294392
181 2 0.025462 0.263802 0.429757
191 3 0.360605 0.257593 0.323909
140 3 0.444986 0.419225 0.358725
184 2 0.147515 0.234172 0.442356
185 3 0.183986 0.297349 0.481422
186 3 0.163175 0.170076 0.496116
187 2 0.187367 0.22004 0.323343
192 3 0.344161 0.153034 0.391115
189 3 0.135519 0.157163 0.297667
183 3 0.0171933 0.331621 0.37484
188 3 0.165507 0.278438 0.2701
13 1 0.261898 0.35687 0.670803
14 1 0.35908 0.343375 0.656575
173 3 0.0266894 0.237581 0.585988
76 3 0.0838166 0.0666084 0.636837
78 2 0.230402 0.0211656 0.713319
79 3 0.291941 0.0610597 0.676232
169 2 0.0371013 0.403596 0.584624
171 3 0.119553 0.402093 0.566
170 3 0.00395537 0.471946 0.550414
166 2 0.0158654 0.408329 0.701744
96 3 0.354504 0.491558 0.501054
167 3 0.041202 0.338599 0.738729
49 3 0.21871 0.0168669 0.510531
23 1 0.246834 0.301652 0.924596
85 2 0.185007 0.067395 0.817416
86 3 0.247019 0.0628541 0.865337
87 3 0.117165 0.0135715 0.853421
104 2 0.461112 0.476952 0.876515
105 3 0.421502 0.418252 0.83051
125 2 0.433762 0.437466 0.992192
161 3 0.14229 0.442354 0.883632
127 3 0.379701 0.363323 0.994791
88 3 0.156463 0.150337 0.814935
8 1 0.479743 0.148102 0.925018
142 3 0.147887 0.940113 0.0121806
113 2 0.174939 0.67295 0.185702
114 3 0.0943775 0.638614 0.200102
124 3 0.210887 0.677203 0.0195179
116 2 0.26824 0.590399 0.203521
117 3 0.333833 0.643147 0.192393
118 3 0.269468 0.534279 0.14761
119 2 0.265294 0.826846 0.082072
120 3 0.269886 0.861904 0.162116
121 3 0.343365 0.811315 0.0713719
122 2 0.188477 0.734721 0.0774194
123 3 0.117916 0.777727 0.0507121
136 3 0.486222 0.552298 0.223498
17 1 0.241898 0.875747 0.338957
18 1 0.331184 0.885787 0.357947
112 3 0.399265 0.635701 0.372397
95 2 0.309848 0.566305 0.495297
45 2 0.0574266 0.936963 0.480296
111 3 0.266751 0.679654 0.376466
47 3 0.0753045 0.925067 0.401417
107 2 0.268361 0.533665 0.306979
108 3 0.197755 0.512542 0.348136
110 2 0.317621 0.613693 0.383677
35 3 0.037236 0.747647 0.356192
115 3 0.167298 0.727045 0.251539
163 2 0.0714846 0.511539 0.749083
48 2 0.165293 0.958271 0.539739
100 3 0.355551 0.718457 0.559328
50 3 0.209793 0.893476 0.550692
77 3 0.0739998 0.934474 0.682125
80 3 0.259107 0.943764 0.731144
89 2 0.341572 0.586715 0.680408
90 3 0.273378 0.616837 0.713754
36 2 0.00952005 0.823729 0.505783
97 3 0.228821 0.563106 0.528831
98 2 0.373669 0.638057 0.570942
99 3 0.456409 0.625511 0.555048
91 3 0.346361 0.504333 0.678725
38 3 0.0627485 0.787379 0.55826
165 3 0.0179569 0.577016 0.732156
164 3 0.137397 0.516347 0.695725
16 1 0.17151 0.741494 0.711804
75 2 0.130834 0.997867 0.647038
15 1 0.147286 0.748686 0.807127
143 3 0.279396 0.982252 0.989132
92 2 0.412554 0.639425 0.761619
144 3 0.223598 0.877072 0.915111
94 3 0.38292 0.725324 0.768441
101 2 0.410693 0.588059 0.870478
102 3 0.448573 0.646448 0.925439
103 3 0.331332 0.586827 0.891655
162 3 0.129736 0.572218 0.902716
160 2 0.0982698 0.507813 0.86693
141 2 0.230745 0.9111 0.998212
133 3 0.576526 0.338347 0.19205
7 1 0.513301 0.144291 0.0122124
130 3 0.596788 0.4806 0.0369366
81 2 0.850395 0.283767 0.047761
82 3 0.869199 0.272159 0.124781
83 3 0.781507 0.336489 0.0426324
84 3 0.914218 0.333511 0.0198203
128 2 0.541501 0.414629 0.0431917
131 2 0.524902 0.39437 0.161118
71 3 0.771695 0.14551 0.019419
26 1 0.839238 0.380828 0.240788
134 2 0.535335 0.486428 0.235008
129 3 0.582195 0.342266 0.00121273
138 3 0.573834 0.369834 0.35459
137 2 0.52869 0.436766 0.351689
20 1 0.563056 0.214703 0.351274
25 1 0.817017 0.463838 0.273317
55 3 0.79906 0.481638 0.485797
182 3 0.974057 0.198937 0.400641
19 1 0.510821 0.204271 0.426952
139 3 0.550811 0.499741 0.407106
11 1 0.82187 0.130493 0.661208
12 1 0.886217 0.0987906 0.60277
174 3 0.903304 0.2942 0.544134
168 3 0.929365 0.427492 0.716385
58 3 0.766876 0.363155 0.663453
60 2 0.619984 0.432405 0.630047
61 3 0.585802 0.387217 0.564591
62 3 0.545511 0.45588 0.669809
68 3 0.657302 0.217514 0.687698
56 3 0.831399 0.476165 0.618205
57 2 0.698304 0.373166 0.705954
195 3 0.615247 0.00280989 0.704573
172 2 0.987614 0.298016 0.538863
66 2 0.650191 0.270183 0.748826
59 3 0.705801 0.414687 0.775843
63 2 0.686659 0.236615 0.859858
64 3 0.649598 0.161003 0.880409
65 3 0.652211 0.288971 0.917073
158 3 0.936039 0.450967 0.91028
106 3 0.545698 0.468442 0.861328
69 2 0.834998 0.184197 0.981538
70 3 0.89271 0.129476 0.976288
72 2 0.803421 0.216359 0.867671
73 3 0.828984 0.163731 0.806269
74 3 0.842795 0.289883 0.854998
196 3 0.734517 0.0213173 0.779876
67 3 0.565938 0.280315 0.75078
179 3 0.664057 0.943241 0.0137546
9 1 0.932165 0.710874 0.11088
10 1 0.902799 0.6676 0.188427
31 1 0.516772 0.757743 0.0584024
135 3 0.604063 0.535053 0.225118
147 3 0.72772 0.767765 0.0360476
4 1 0.802449 0.894744 0.18444
32 1 0.509506 0.663979 0.0856491
3 1 0.729423 0.951031 0.159175
152 3 0.802679 0.614521 0.000364029
5 1 0.737875 0.649598 0.346858
6 1 0.653539 0.649136 0.309161
33 2 0.974468 0.753934 0.41658
34 3 0.911065 0.799784 0.380533
42 2 0.930887 0.641478 0.45464
43 3 0.902809 0.602198 0.387597
44 3 0.997202 0.596233 0.484784
46 3 0.992274 0.998176 0.480092
194 3 0.713139 0.903409 0.715069
29 1 0.61027 0.749397 0.697341
30 1 0.578723 0.735787 0.606599
39 2 0.852418 0.639377 0.545589
40 3 0.890095 0.657716 0.627327
41 3 0.790426 0.692903 0.54046
51 2 0.68381 0.533173 0.606559
52 3 0.639454 0.592592 0.561169
53 3 0.692797 0.559283 0.686414
54 2 0.799957 0.527386 0.555618
37 3 0.935817 0.826896 0.550223
145 2 0.710067 0.789248 0.951294
146 3 0.647829 0.736979 0.93091
148 2 0.807445 0.74281 0.881789
149 3 0.877853 0.800236 0.883674
150 3 0.793495 0.749697 0.797246
151 2 0.830766 0.629856 0.919956
153 3 0.786722 0.56908 0.882811
154 2 0.949155 0.625115 0.905052
155 3 0.993578 0.686765 0.937073
156 3 0.974522 0.634777 0.827805
175 2 0.611557 0.927035 0.856706
176 3 0.564729 0.99616 0.86879
178 2 0.695697 0.905728 0.946348
157 2 0.993299 0.513014 0.932307
180 3 0.762222 0.952542 0.919802
177 3 0.555585 0.866491 0.845059
28 1 0.923975 0.934367 0.802069
27 1 0.955534 0.984826 0.873734
193 2 0.667454 0.967085 0.754612
93 3 0.500845 0.628616 0.757354
ITEM: TIMESTEP
4000
ITEM: NUMBER OF ATOMS
200
ITEM: BOX BOUNDS pp pp pp
-3.0252 9.81708
2.19301 15.0353
-0.77907 12.0632
ITEM: ATOMS id type xs ys zs
1 1 0.0896499 0.424421 0.160115
197 2 0.316117 0.155739 0.226693
198 3 0.313066 0.222883 0.186845
21 1 0.0790481 0.127313 0.0928223
127 3 0.348923 0.441997 0.0357762
199 3 0.39763 0.124283 0.217286
200 3 0.268907 0.0904501 0.192169
22 1 0.0487933 0.0475423 0.153093
132 3 0.44978 0.283152 0.148579
136 3 0.450858 0.471298 0.179714
125 2 0.434772 0.455757 0.00740732
24 1 0.210233 0.307331 0.00203769
2 1 0.0489824 0.437982 0.247627
190 2 0.277041 0.15837 0.342146
109 3 0.341714 0.485313 0.265252
181 2 0.0136226 0.283853 0.420699
191 3 0.33478 0.199952 0.378202
140 3 0.483585 0.34666 0.342469
184 2 0.131138 0.255185 0.426801
185 3 0.192022 0.293028 0.467389
186 3 0.116223 0.183662 0.477666
187 2 0.172813 0.220288 0.320145
192 3 0.269149 0.0773156 0.382255
189 3 0.123669 0.163237 0.279982
183 3 0.0225301 0.353927 0.368596
188 3 0.195041 0.282077 0.268768
96 3 0.302538 0.492183 0.473026
13 1 0.261151 0.350284 0.715727
14 1 0.307972 0.304928 0.642592
49 3 0.177087 0.0233427 0.506733
76 3 0.0572054 0.0618538 0.658395
78 2 0.21467 0.040791 0.72514
79 3 0.24798 0.0755733 0.66093
169 2 0.0614992 0.399762 0.571724
171 3 0.14601 0.37425 0.559652
167 3 0.0599961 0.356639 0.74036
166 2 0.0379992 0.416498 0.693789
91 3 0.40722 0.481947 0.635307
170 3 0.0441951 0.461879 0.51712
23 1 0.196889 0.293401 0.90448
85 2 0.180981 0.110099 0.816194
86 3 0.245746 0.131558 0.870339
87 3 0.118075 0.0664893 0.86385
104 2 0.441298 0.475481 0.890696
105 3 0.410756 0.408545 0.84643
129 3 0.494803 0.289885 0.962421
161 3 0.158002 0.483953 0.846497
8 1 0.450457 0.162021 0.890506
88 3 0.146191 0.186161 0.792728
7 1 0.45276 0.0976278 0.968302
31 1 0.482306 0.683661 0.0487531
113 2 0.167386 0.660671 0.158036
114 3 0.128895 0.583782 0.139203
141 2 0.261622 0.915289 0.0145996
116 2 0.279139 0.609726 0.170646
117 3 0.341988 0.665504 0.180139
118 3 0.29373 0.56746 0.109559
119 2 0.241892 0.831514 0.107988
120 3 0.217834 0.890739 0.16488
121 3 0.318331 0.811364 0.136604
122 2 0.179641 0.740246 0.0649729
123 3 0.101552 0.761923 0.0451988
115 3 0.126206 0.689048 0.228111
126 3 0.46304 0.52901 0.0365908
143 3 0.331764 0.961264 0.0356821
142 3 0.192438 0.965709 0.0056321
17 1 0.23783 0.845296 0.364906
18 1 0.340637 0.862831 0.341799
112 3 0.401466 0.635859 0.357096
95 2 0.303809 0.584731 0.476662
45 2 0.0493942 0.939797 0.482844
111 3 0.29133 0.703873 0.344926
47 3 0.0662684 0.939529 0.40003
107 2 0.286793 0.548427 0.273605
97 3 0.224797 0.610068 0.492522
110 2 0.32282 0.626945 0.361462
35 3 0.0360878 0.741176 0.383189
108 3 0.206679 0.510516 0.284578
163 2 0.0817624 0.532179 0.703241
48 2 0.139334 0.970685 0.553969
100 3 0.316536 0.703499 0.601345
50 3 0.198335 0.912838 0.573511
77 3 0.065023 0.923055 0.703001
164 3 0.134102 0.544066 0.645404
89 2 0.365261 0.552509 0.646742
90 3 0.290814 0.515962 0.651643
16 1 0.185458 0.766533 0.656104
165 3 0.0214708 0.590877 0.682475
98 2 0.367603 0.640506 0.562425
99 3 0.439003 0.66631 0.532946
75 2 0.108954 0.996965 0.669369
38 3 0.0365941 0.807333 0.598914
80 3 0.261601 0.976684 0.746263
15 1 0.234635 0.736425 0.734936
94 3 0.400754 0.685634 0.730699
160 2 0.119135 0.543787 0.819603
157 2 0.0180296 0.538224 0.886524
92 2 0.409227 0.600068 0.751936
144 3 0.270624 0.880904 0.932788
159 3 0.0372035 0.517638 0.966823